      10
 i =       52, E =       -36.6037896758
  O         0.4369533511        0.3470105671       -0.1014745235
  C         0.0827246769       -1.0274274461        0.1974502417
  C         1.4912356701       -0.5965190152        0.2006148163
  H        -0.2669380199       -1.5823759366       -0.6818508093
  C        -0.6855739543       -1.2609357690        1.4697754336
  H         1.9939860160       -0.4367594522        1.1601423112
  H         2.1434814045       -0.8495678112       -0.6410896356
  H        -0.6449811522       -2.3224351701        1.7551549617
  H        -1.7416338578       -0.9845966501        1.3417216431
  H        -0.2677190694       -0.6601800628        2.2884066993
